#     Step Nr.          Time[fs]        Kin.[a.u.]          Temp[K]            Pot.[a.u.]        Cons Qty[a.u.]        UsedTime[s]
         0            0.000000         0.511123996       300.000000000     -2070.534863411     -2070.023739415         0.000000000
         1            0.500000         0.505509028       296.704340856     -2070.533894377     -2070.024065088       309.358706582
         2            1.000000         0.500195274       293.585476838     -2070.521139535     -2070.023593267        54.169504151
         3            1.500000         0.486623450       285.619607203     -2070.504284282     -2070.023194220        54.878190272
         4            2.000000         0.474794814       278.676887037     -2070.489890891     -2070.023097339        54.255481396
         5            2.500000         0.469535067       275.589722073     -2070.480376437     -2070.023254337        54.582367886
         6            3.000000         0.467363260       274.314997938     -2070.474733874     -2070.023491667        54.647218600
         7            3.500000         0.468231578       274.824649819     -2070.471615373     -2070.023574519        54.545790862
         8            4.000000         0.474754523       278.653238755     -2070.471253485     -2070.023543315        52.970417034
         9            4.500000         0.472247504       277.181764468     -2070.474422559     -2070.023463774        54.080728147
        10            5.000000         0.484263725       284.234586036     -2070.481076964     -2070.023606843        54.684770226
        11            5.500000         0.491443202       288.448520780     -2070.489238466     -2070.023808777        55.322489765
        12            6.000000         0.495658524       290.922668815     -2070.496760616     -2070.023741308        54.592146188
        13            6.500000         0.508449069       298.429973371     -2070.504476600     -2070.023370931        52.860807814
        14            7.000000         0.525601006       308.497160918     -2070.516757509     -2070.023043176        54.540364064
        15            7.500000         0.539472344       316.638828029     -2070.537631500     -2070.022995103        54.100395858
        16            8.000000         0.564430751       331.287958332     -2070.566150166     -2070.023422116        54.259860639
        17            8.500000         0.586170720       344.048053455     -2070.594846996     -2070.024113108        53.563978992
        18            9.000000         0.598122236       351.062896667     -2070.613876676     -2070.024434153        52.874061026
        19            9.500000         0.596780202       350.275201208     -2070.618320766     -2070.024249362        55.280909576
        20           10.000000         0.588085525       345.171932336     -2070.611050794     -2070.023704403        52.414932810
        21           10.500000         0.573236906       336.456658268     -2070.600429922     -2070.023283666        55.598670375
        22           11.000000         0.558253484       327.662262776     -2070.594298900     -2070.023132863        54.319870196
        23           11.500000         0.554924062       325.708086169     -2070.595368769     -2070.023237601        54.776793286
        24           12.000000         0.557294776       327.099556804     -2070.600829288     -2070.023536624        53.168871280
        25           12.500000         0.560224352       328.819047130     -2070.605532508     -2070.023791541        53.984608095
        26           13.000000         0.553672578       324.973537993     -2070.606059887     -2070.023846539        55.074343469
        27           13.500000         0.542694496       318.530043196     -2070.602301808     -2070.023781058        52.861404452
        28           14.000000         0.530876320       311.593462939     -2070.595894576     -2070.023735937        55.598115884
        29           14.500000         0.521975903       306.369436762     -2070.588701078     -2070.023573010        52.879642323
        30           15.000000         0.519841372       305.116591680     -2070.583058941     -2070.023517347        54.382581595
        31           15.500000         0.517694276       303.856371097     -2070.581558933     -2070.023277127        53.697495181
        32           16.000000         0.514487925       301.974430314     -2070.588014976     -2070.023101616        53.582202304
        33           16.500000         0.534811267       313.903047479     -2070.604382872     -2070.023187962        54.774600029
        34           17.000000         0.559776590       328.556236979     -2070.627925556     -2070.023705686        54.504874457
        35           17.500000         0.590518646       346.600032485     -2070.650922534     -2070.024291956        54.230024990
        36           18.000000         0.599470182       351.854062354     -2070.664649865     -2070.024540990        54.391613279
        37           18.500000         0.595265198       349.385982035     -2070.665320009     -2070.024293905        54.810884576
        38           19.000000         0.596433105       350.071475492     -2070.655654110     -2070.023854976        55.493172500
        39           19.500000         0.584352086       342.980621404     -2070.642190638     -2070.023364187        53.890311401
        40           20.000000         0.568285216       333.550305032     -2070.632287840     -2070.023138248        55.877471767
        41           20.500000         0.564105221       331.096891565     -2070.629988004     -2070.023270829        54.805729445
        42           21.000000         0.569847275       334.467142234     -2070.634497927     -2070.023558936        53.026805408
        43           21.500000         0.574997465       337.490003618     -2070.641814400     -2070.023885119        54.764970385
        44           22.000000         0.574670935       337.298349626     -2070.647259882     -2070.024203034        54.491516843
        45           22.500000         0.570318669       334.743823015     -2070.647596096     -2070.024304964        55.456183530
        46           23.000000         0.563887798       330.969276849     -2070.642295422     -2070.024264398        54.443439905
        47           23.500000         0.550112538       322.884001627     -2070.632520520     -2070.024040348        53.989239637
        48           24.000000         0.544708240       319.711993736     -2070.621604764     -2070.023748227        54.579815924
        49           24.500000         0.532998642       312.839142198     -2070.614173381     -2070.023376808        54.781672195
        50           25.000000         0.533051062       312.869909636     -2070.615252086     -2070.023124726        54.211014144
        51           25.500000         0.540732148       317.378259338     -2070.627516089     -2070.023177150        53.652532939
        52           26.000000         0.566725032       332.634567566     -2070.648951715     -2070.023642546        54.529528603
        53           26.500000         0.590599531       346.647507555     -2070.672687778     -2070.024209185        56.088325158
        54           27.000000         0.599221267       351.707963960     -2070.690294767     -2070.024481255        55.726395167
        55           27.500000         0.607889984       356.795995746     -2070.696963703     -2070.024569051        55.467623033
        56           28.000000         0.607513793       356.575193291     -2070.692832597     -2070.024228436        54.661115833
        57           28.500000         0.603150557       354.014228335     -2070.683209750     -2070.023899705        53.057180900
        58           29.000000         0.590500445       346.589349367     -2070.674643945     -2070.023574327        54.609251142
        59           29.500000         0.580741795       340.861590813     -2070.672487994     -2070.023531855        54.439901616
        60           30.000000         0.592999088       348.055907232     -2070.677909308     -2070.023729247        55.746286631
        61           30.500000         0.602736148       353.770994468     -2070.688054162     -2070.024242770        55.499431115
        62           31.000000         0.607570325       356.608374625     -2070.697435305     -2070.024715554        54.698114883
        63           31.500000         0.608269180       357.018561424     -2070.701437729     -2070.024922848        54.761388615
        64           32.000000         0.602148800       353.426255081     -2070.697955921     -2070.024944995        55.920034189
        65           32.500000         0.587093611       344.589736398     -2070.687727497     -2070.024721630        53.367510080
        66           33.000000         0.573863896       336.824664774     -2070.674486897     -2070.024479000        55.829281684
        67           33.500000         0.546947596       321.026365200     -2070.663212221     -2070.024169378        53.758736823
        68           34.000000         0.539139776       316.443629813     -2070.658869486     -2070.023906032        55.414700296
        69           34.500000         0.534770720       313.879248901     -2070.664084749     -2070.023929819        55.587131448
        70           35.000000         0.554024206       325.179923059     -2070.677424601     -2070.024230210        55.462905612
        71           35.500000         0.572831683       336.218815950     -2070.693982967     -2070.024616178        55.238020919
        72           36.000000         0.579425618       340.089071822     -2070.707658535     -2070.025021785        55.476322636
        73           36.500000         0.585056402       343.394013867     -2070.714095635     -2070.024984630        55.459732853
        74           37.000000         0.579181297       339.945669679     -2070.712887255     -2070.024621556        55.693068150
        75           37.500000         0.576127011       338.152981785     -2070.707095246     -2070.024342269        53.380337927
        76           38.000000         0.573773061       336.771350151     -2070.700852059     -2070.024192682        55.019391682
        77           38.500000         0.572567683       336.063863573     -2070.697519835     -2070.024078424        55.271645863
        78           39.000000         0.567952079       333.354772909     -2070.698656373     -2070.024121938        53.596455425
        79           39.500000         0.567737127       333.228608315     -2070.703434269     -2070.024337136        54.671003971
        80           40.000000         0.562208723       329.983757550     -2070.709195986     -2070.024556907        54.896433476
        81           40.500000         0.557595271       327.275930090     -2070.712859948     -2070.024849478        56.054890297
        82           41.000000         0.559780608       328.558595633     -2070.711546450     -2070.024942569        55.437966581
        83           41.500000         0.553618108       324.941567332     -2070.704303638     -2070.024910176        55.496075079
        84           42.000000         0.541320025       317.723309052     -2070.692335082     -2070.024591746        55.741067585
        85           42.500000         0.521765001       306.245649502     -2070.679459039     -2070.024330264        55.524784595
        86           43.000000         0.515142684       302.358735216     -2070.669546950     -2070.024042302        53.954591673
        87           43.500000         0.506108396       297.056135136     -2070.665658835     -2070.024072302        54.630508967
        88           44.000000         0.506126363       297.066680648     -2070.668105414     -2070.024224948        53.270449232
        89           44.500000         0.511033660       299.946977961     -2070.675064494     -2070.024314094        54.514306545
        90           45.000000         0.522799349       306.852751417     -2070.683740006     -2070.024461423        54.802174043
        91           45.500000         0.527000604       309.318643233     -2070.690891475     -2070.024590390        54.566977877
        92           46.000000         0.532912913       312.788824524     -2070.694257252     -2070.024727225        55.452068951
        93           46.500000         0.541074156       317.578998565     -2070.692885960     -2070.024718979        55.095979728
        94           47.000000         0.529404913       310.729832985     -2070.687865187     -2070.024574326        54.388123065
        95           47.500000         0.527719412       309.740542094     -2070.682196770     -2070.024342883        56.160532478
        96           48.000000         0.524416693       307.802038319     -2070.679245076     -2070.024214875        55.000240125
        97           48.500000         0.526494643       309.021674113     -2070.680704258     -2070.024283367        56.215188559
        98           49.000000         0.531609514       312.023805084     -2070.685584607     -2070.024554741        56.247699939
        99           49.500000         0.527458242       309.587250161     -2070.690749877     -2070.024760081        55.712169610
       100           50.000000         0.524936875       308.107354966     -2070.693112155     -2070.024840006        56.968305942
       101           50.500000         0.532553073       312.577619127     -2070.690664389     -2070.024828514        57.160807554
       102           51.000000         0.522958505       306.946166683     -2070.683308969     -2070.024672842        56.452740513
       103           51.500000         0.511969896       300.496493779     -2070.673079095     -2070.024467995        57.490862805
       104           52.000000         0.498972787       292.867947976     -2070.662944110     -2070.024305382        56.438533839
       105           52.500000         0.498120697       292.367820815     -2070.655118376     -2070.024166997        57.607284676
       106           53.000000         0.498245205       292.440900126     -2070.650895179     -2070.024177805        55.824235447
       107           53.500000         0.495604016       290.890675961     -2070.649977995     -2070.024237636        55.424237162
       108           54.000000         0.497599557       292.061941932     -2070.651410635     -2070.024347857        56.672474790
       109           54.500000         0.501614836       294.418677198     -2070.653692537     -2070.024379249        56.338349976
       110           55.000000         0.502657200       295.030483882     -2070.655569193     -2070.024560056        57.348085433
       111           55.500000         0.503340708       295.431663184     -2070.655803866     -2070.024473597        56.665314533
       112           56.000000         0.501509081       294.356604947     -2070.654776829     -2070.024485199        55.738695092
       113           56.500000         0.496127085       291.197687118     -2070.653311042     -2070.024472963        55.368737325
       114           57.000000         0.494148168       290.036177918     -2070.652920122     -2070.024379528        57.489081752
       115           57.500000         0.494308831       290.130477773     -2070.655120120     -2070.024385658        56.970882870
       116           58.000000         0.502564886       294.976301021     -2070.660307906     -2070.024491473        56.709370900
       117           58.500000         0.504960932       296.382640584     -2070.667545375     -2070.024737538        57.400575463
       118           59.000000         0.515363254       302.488197205     -2070.674454731     -2070.024850500        56.783396322
       119           59.500000         0.521973175       306.367835748     -2070.679318561     -2070.024866859        56.939368691
       120           60.000000         0.524219557       307.686331083     -2070.681231034     -2070.024805413        54.736402977
       121           60.500000         0.527664120       309.708088711     -2070.680761146     -2070.024667051        56.767447870
       122           61.000000         0.523267366       307.127450036     -2070.679385139     -2070.024573191        57.614916429
       123           61.500000         0.514391256       301.917691017     -2070.678352046     -2070.024523719        57.029907811
       124           62.000000         0.520327488       305.401913358     -2070.678327577     -2070.024422475        57.113667358
       125           62.500000         0.526463755       309.003544278     -2070.679425558     -2070.024274607        57.547745522
       126           63.000000         0.520258337       305.361325602     -2070.681630878     -2070.024059366        56.974233583
       127           63.500000         0.521433130       306.050860587     -2070.685054789     -2070.024118252        56.641001392
       128           64.000000         0.531068308       311.706148768     -2070.688519994     -2070.024184268        55.567906253
       129           64.500000         0.531472925       311.943635282     -2070.690943919     -2070.024179075        55.711939096
       130           65.000000         0.521598591       306.147976689     -2070.692243705     -2070.024143697        56.388633642
       131           65.500000         0.519825945       305.107536715     -2070.693328037     -2070.024067244        56.828002192
       132           66.000000         0.521368329       306.012826236     -2070.695816874     -2070.024223452        56.053666092
       133           66.500000         0.522997948       306.969317777     -2070.700301959     -2070.024239691        56.954870626
       134           67.000000         0.531357866       311.876102378     -2070.707096793     -2070.024282977        56.598807193
       135           67.500000         0.541787596       317.997746187     -2070.715394327     -2070.024468437        57.348399397
       136           68.000000         0.553079130       324.625218306     -2070.723448469     -2070.024548724        55.623651370
       137           68.500000         0.569834443       334.459610760     -2070.729883800     -2070.024552341        56.394198298
       138           69.000000         0.569412954       334.212221576     -2070.733723964     -2070.024484521        57.207989633
       139           69.500000         0.576592480       338.426184793     -2070.735590079     -2070.024441989        56.370871738
       140           70.000000         0.571740498       335.578354242     -2070.736702381     -2070.024323637        56.458666846
       141           70.500000         0.568317047       333.568987606     -2070.738416184     -2070.024273691        56.701645806
       142           71.000000         0.563322378       330.637408391     -2070.741377168     -2070.024429091        56.826756984
       143           71.500000         0.564727572       331.462175007     -2070.744624549     -2070.024513137        56.934952624
       144           72.000000         0.560747055       329.125843803     -2070.746996719     -2070.024608328        55.709534381
       145           72.500000         0.554741105       325.600700916     -2070.747440341     -2070.024582311        57.032974843
       146           73.000000         0.551681421       323.804844872     -2070.745636737     -2070.024582076        57.546573658
       147           73.500000         0.548541053       321.961631935     -2070.741703467     -2070.024652833        57.745352212
       148           74.000000         0.543029498       318.726670042     -2070.736151171     -2070.024573238        57.958529979
       149           74.500000         0.526221444       308.861321972     -2070.730580511     -2070.024507719        57.440924317
       150           75.000000         0.525261561       308.297926434     -2070.726400396     -2070.024354916        57.598927140
       151           75.500000         0.520496620       305.501184134     -2070.724904017     -2070.024401804        56.196746793
       152           76.000000         0.518540100       304.352820455     -2070.726012548     -2070.024378097        56.942614712
       153           76.500000         0.521879177       306.312664200     -2070.729093879     -2070.024510591        56.730093259
       154           77.000000         0.518017645       304.046170264     -2070.732645292     -2070.024633765        57.603744186
       155           77.500000         0.516528279       303.171998772     -2070.735583239     -2070.024589183        56.923398126
       156           78.000000         0.516647116       303.241749299     -2070.737507337     -2070.024534090        56.696698360
       157           78.500000         0.518411618       304.277409458     -2070.738178362     -2070.024438840        56.203552499
       158           79.000000         0.519895440       305.148326158     -2070.737913447     -2070.024441711        56.610299420
       159           79.500000         0.512716388       300.934641012     -2070.737272878     -2070.024333109        54.591752842
       160           80.000000         0.510617772       299.702875562     -2070.737473500     -2070.024191121        57.229928341
       161           80.500000         0.509308946       298.934671050     -2070.739570317     -2070.024337964        57.218317393
       162           81.000000         0.507902150       298.108964175     -2070.742908639     -2070.024564343        56.872158155
       163           81.500000         0.515341430       302.475387454     -2070.745566099     -2070.024812837        56.238384534
       164           82.000000         0.513941052       301.653447178     -2070.745109387     -2070.024947906        55.973583832
       165           82.500000         0.512228330       300.648179673     -2070.740390191     -2070.024900574        55.131585639
       166           83.000000         0.499986007       293.462649201     -2070.732775154     -2070.024680527        57.141170152
       167           83.500000         0.482588906       283.251565055     -2070.725430782     -2070.024551808        57.004851006
       168           84.000000         0.483557628       283.820148325     -2070.720586965     -2070.024545414        56.133296024
       169           84.500000         0.486011257       285.260285620     -2070.718941258     -2070.024601123        56.704223108
       170           85.000000         0.487969111       286.409431910     -2070.719919098     -2070.024606630        57.487841129
       171           85.500000         0.487755772       286.284213990     -2070.722526109     -2070.024663531        55.915443633
       172           86.000000         0.481172206       282.420044222     -2070.725792080     -2070.024741577        55.772791389
       173           86.500000         0.488017332       286.437734652     -2070.729385548     -2070.024825032        56.369522464
       174           87.000000         0.496285939       291.290925228     -2070.733266394     -2070.024828282        57.568412468
       175           87.500000         0.492375256       288.995582082     -2070.737570731     -2070.024877975        56.128188416
       176           88.000000         0.495002227       290.537460871     -2070.742029255     -2070.024910871        55.426904734
       177           88.500000         0.496900427       291.651593688     -2070.746025587     -2070.024839992        57.511281602
       178           89.000000         0.506479501       297.273951920     -2070.749460365     -2070.024864568        57.460339196
       179           89.500000         0.498356995       292.506514089     -2070.752674278     -2070.024791915        57.311638393
       180           90.000000         0.506472014       297.269557705     -2070.756856960     -2070.024905252        57.400969699
       181           90.500000         0.513415004       301.344687844     -2070.761760002     -2070.025055411        56.503666487
       182           91.000000         0.520370283       305.427031253     -2070.765382757     -2070.025116869        56.870655235
       183           91.500000         0.514498234       301.980481109     -2070.765713796     -2070.025183410        56.445372697
       184           92.000000         0.519018606       304.633676029     -2070.761778594     -2070.024952203        56.536149736
       185           92.500000         0.511167555       300.025566311     -2070.755510901     -2070.024773455        56.049611874
       186           93.000000         0.511531295       300.239060671     -2070.749511775     -2070.024689121        56.364578173
       187           93.500000         0.522224142       306.515138409     -2070.745337459     -2070.024660377        57.118197586
       188           94.000000         0.517447572       303.711570274     -2070.743000922     -2070.024815738        57.187286034
       189           94.500000         0.519890602       305.145486421     -2070.741039838     -2070.024935165        57.134451590
       190           95.000000         0.513257852       301.252448995     -2070.738522992     -2070.025056448        58.204823293
       191           95.500000         0.500153264       293.560819553     -2070.735413799     -2070.024958494        55.843711719
       192           96.000000         0.498117668       292.366043197     -2070.732888766     -2070.024912187        57.439973913
       193           96.500000         0.498393473       292.527924755     -2070.731917860     -2070.024937522        58.484941266
       194           97.000000         0.490904783       288.132499956     -2070.732980732     -2070.025073978        57.389490679
       195           97.500000         0.501519682       294.362827048     -2070.735366073     -2070.025166021        56.579210777
       196           98.000000         0.504380773       296.042120811     -2070.737879753     -2070.025241586        57.352314487
       197           98.500000         0.506727010       297.419225473     -2070.739807646     -2070.025176322        57.475461487
       198           99.000000         0.506687762       297.396188946     -2070.741655030     -2070.025157835        58.317036990
       199           99.500000         0.505969408       296.974556927     -2070.743698321     -2070.025194547        57.989710305
       200          100.000000         0.507260427       297.732309928     -2070.745649550     -2070.025288747        57.868110802
       201          100.500000         0.508992637       298.749016207     -2070.746491634     -2070.025273307        57.621031784
       202          101.000000         0.514039332       301.711131956     -2070.745492378     -2070.025168983        56.765656453
       203          101.500000         0.510074688       299.384117177     -2070.742794122     -2070.025102987        55.332382534
       204          102.000000         0.516304334       303.040556008     -2070.739221957     -2070.025075454        57.280315448
       205          102.500000         0.513615003       301.462075883     -2070.735720213     -2070.025111780        58.100781187
       206          103.000000         0.504554144       296.143879687     -2070.732709014     -2070.025187685        58.088910975
       207          103.500000         0.505684189       296.807150166     -2070.729870782     -2070.025271329        57.263380256
       208          104.000000         0.509974648       299.325399214     -2070.726577796     -2070.025266231        57.303656589
       209          104.500000         0.504200313       295.936201102     -2070.723148907     -2070.025298778        57.678235881
       210          105.000000         0.495690812       290.941620262     -2070.720254327     -2070.025224602        57.228136312
       211          105.500000         0.496643738       291.500932064     -2070.718941565     -2070.025222688        57.480957132
       212          106.000000         0.498828012       292.782973440     -2070.719404169     -2070.025288785        57.130246837
       213          106.500000         0.498386359       292.523749050     -2070.720919785     -2070.025306254        57.886325870
       214          107.000000         0.503513374       295.533007997     -2070.722921494     -2070.025220639        56.890830126
       215          107.500000         0.509706612       299.168077884     -2070.725838247     -2070.025199393        57.521123469
       216          108.000000         0.518277150       304.198484281     -2070.729977408     -2070.025197494        57.826647323
       217          108.500000         0.524194760       307.671776485     -2070.734928931     -2070.025270668        56.537165046
       218          109.000000         0.528415997       310.149396885     -2070.739512370     -2070.025399636        57.246780481
       219          109.500000         0.528391804       310.135197052     -2070.742611602     -2070.025492542        58.749437321
       220          110.000000         0.531729938       312.094486646     -2070.744144360     -2070.025433661        57.633138243
       221          110.500000         0.532439772       312.511118209     -2070.745243756     -2070.025439913        57.618498765
       222          111.000000         0.531308468       311.847108312     -2070.746859604     -2070.025379128        58.350031678
       223          111.500000         0.536527741       314.910517789     -2070.749440568     -2070.025441267        58.673442367
       224          112.000000         0.544547046       319.617382336     -2070.751840291     -2070.025494601        57.427185200
       225          112.500000         0.546084964       320.520050804     -2070.752496752     -2070.025455200        56.029786687
       226          113.000000         0.545527057       320.192591863     -2070.750865280     -2070.025405175        58.192355949
       227          113.500000         0.538011398       315.781337968     -2070.747334019     -2070.025210342        58.213358972